<?xml version="1.0" encoding="UTF-8"?>

<!-- generated on 2025-11-09 23:30:05 by Eclipse SUMO GUI Version 1.24.0
<sumoConfiguration xmlns:xsi="http://www.w3.org/2001/XMLSchema-instance" xsi:noNamespaceSchemaLocation="http://sumo.dlr.de/xsd/sumoConfiguration.xsd">

    <input>
        <net-file value="C:\projects\traffic-simulation-group\cfg\../net/marchtrenk_clean2.net.xml"/>
        <route-files value="C:\projects\traffic-simulation-group\cfg\../demand/baseline_all.rou.xml"/>
        <additional-files value="C:\projects\traffic-simulation-group\cfg\../add/stops.add.xml"/>
    </input>

    <output>
        <emission-output value="C:\projects\traffic-simulation-group\cfg\../outputs/emissions.xml"/>
        <summary-output value="C:\projects\traffic-simulation-group\cfg\../outputs/summary.xml"/>
        <tripinfo-output value="C:\projects\traffic-simulation-group\cfg\../outputs/tripinfo.xml"/>
    </output>

    <time>
        <begin value="0"/>
        <end value="7600"/>
    </time>

    <processing>
        <time-to-teleport value="-1"/>
    </processing>

    <report>
        <no-step-log value="true"/>
    </report>

</sumoConfiguration>
-->

<tripinfos xmlns:xsi="http://www.w3.org/2001/XMLSchema-instance" xsi:noNamespaceSchemaLocation="http://sumo.dlr.de/xsd/tripinfo_file.xsd">
    <tripinfo id="bgt_3" depart="36.00" departLane="23713919_0" departPos="12.10" departSpeed="0.00" departDelay="0.00" arrival="63.00" arrivalLane="-314039227#3_0" arrivalPos="29.22" arrivalSpeed="8.01" duration="27.00" routeLength="186.68" waitingTime="0.00" waitingCount="0" stopTime="0.00" timeLoss="15.14" rerouteNo="0" devices="tripinfo_bgt_3 emissions_bgt_3" vType="truck_euro6" speedFactor="0.91" vaporized="">
        <emissions CO_abs="679.15" CO2_abs="477471.60" HC_abs="0.00" PMx_abs="83.84" NOx_abs="4169.82" fuel_abs="150198.94" electricity_abs="0.00"/>
    </tripinfo>
    <tripinfo id="bgc_22" depart="47.00" departLane="26242019#0_0" departPos="4.60" departSpeed="0.00" departDelay="0.80" arrival="68.00" arrivalLane="26242019#1_0" arrivalPos="48.69" arrivalSpeed="7.43" duration="21.00" routeLength="135.78" waitingTime="0.00" waitingCount="0" stopTime="0.00" timeLoss="3.04" rerouteNo="0" devices="tripinfo_bgc_22 emissions_bgc_22" vType="car_default" speedFactor="0.93" vaporized="">
        <emissions CO_abs="1218.19" CO2_abs="48657.55" HC_abs="6.65" PMx_abs="0.75" NOx_abs="19.57" fuel_abs="15519.91" electricity_abs="0.00"/>
    </tripinfo>
    <tripinfo id="bgc_4" depart="9.00" departLane="-174967686#4_0" departPos="4.60" departSpeed="0.00" departDelay="0.60" arrival="69.00" arrivalLane="-1212551598#2_0" arrivalPos="54.85" arrivalSpeed="6.84" duration="60.00" routeLength="527.85" waitingTime="0.00" waitingCount="0" stopTime="0.00" timeLoss="10.09" rerouteNo="0" devices="tripinfo_bgc_4 emissions_bgc_4" vType="car_default" speedFactor="0.94" vaporized="">
        <emissions CO_abs="2806.67" CO2_abs="161832.83" HC_abs="16.45" PMx_abs="2.74" NOx_abs="65.56" fuel_abs="51617.56" electricity_abs="0.00"/>
    </tripinfo>
    <tripinfo id="bgc_9" depart="19.00" departLane="406853543#0_0" departPos="4.60" departSpeed="0.00" departDelay="0.10" arrival="82.00" arrivalLane="-1212551598#3_0" arrivalPos="40.84" arrivalSpeed="7.67" duration="63.00" routeLength="575.53" waitingTime="0.00" waitingCount="0" stopTime="0.00" timeLoss="10.09" rerouteNo="0" devices="tripinfo_bgc_9 emissions_bgc_9" vType="car_default" speedFactor="0.99" vaporized="">
        <emissions CO_abs="3105.62" CO2_abs="175301.19" HC_abs="18.18" PMx_abs="2.94" NOx_abs="70.94" fuel_abs="55913.44" electricity_abs="0.00"/>
    </tripinfo>
    <tripinfo id="bgc_23" depart="49.00" departLane="513169636#0_0" departPos="4.60" departSpeed="0.00" departDelay="0.70" arrival="94.00" arrivalLane="-878984947#1_0" arrivalPos="15.42" arrivalSpeed="8.33" duration="45.00" routeLength="363.01" waitingTime="0.00" waitingCount="0" stopTime="0.00" timeLoss="6.26" rerouteNo="0" devices="tripinfo_bgc_23 emissions_bgc_23" vType="car_default" speedFactor="1.15" vaporized="">
        <emissions CO_abs="1895.76" CO2_abs="101523.71" HC_abs="10.95" PMx_abs="1.52" NOx_abs="40.14" fuel_abs="32381.89" electricity_abs="0.00"/>
    </tripinfo>
    <tripinfo id="bgc_21" depart="45.00" departLane="-237132919#5_0" departPos="4.60" departSpeed="0.00" departDelay="0.90" arrival="96.00" arrivalLane="-398287565_0" arrivalPos="13.12" arrivalSpeed="13.29" duration="51.00" routeLength="505.24" waitingTime="0.00" waitingCount="0" stopTime="0.00" timeLoss="5.99" rerouteNo="0" devices="tripinfo_bgc_21 emissions_bgc_21" vType="car_default" speedFactor="1.13" vaporized="">
        <emissions CO_abs="2028.41" CO2_abs="135072.57" HC_abs="12.29" PMx_abs="2.07" NOx_abs="53.10" fuel_abs="43082.27" electricity_abs="0.00"/>
    </tripinfo>
    <tripinfo id="bgt_0" depart="0.00" departLane="558918834#0_0" departPos="12.10" departSpeed="0.00" departDelay="0.00" arrival="98.00" arrivalLane="558783357#1_0" arrivalPos="207.58" arrivalSpeed="4.90" duration="98.00" routeLength="635.95" waitingTime="0.00" waitingCount="0" stopTime="0.00" timeLoss="21.26" rerouteNo="0" devices="tripinfo_bgt_0 emissions_bgt_0" vType="truck_euro6" speedFactor="0.97" vaporized="">
        <emissions CO_abs="1935.53" CO2_abs="1244697.73" HC_abs="0.00" PMx_abs="248.23" NOx_abs="11399.72" fuel_abs="391540.41" electricity_abs="0.00"/>
    </tripinfo>
    <tripinfo id="bgc_24" depart="51.00" departLane="314035992_0" departPos="4.60" departSpeed="0.00" departDelay="0.60" arrival="101.00" arrivalLane="23755649#1_0" arrivalPos="9.50" arrivalSpeed="7.40" duration="50.00" routeLength="376.14" waitingTime="0.00" waitingCount="0" stopTime="0.00" timeLoss="13.74" rerouteNo="0" devices="tripinfo_bgc_24 emissions_bgc_24" vType="car_default" speedFactor="1.01" vaporized="">
        <emissions CO_abs="3029.46" CO2_abs="147461.07" HC_abs="17.25" PMx_abs="2.74" NOx_abs="61.89" fuel_abs="47033.58" electricity_abs="0.00"/>
    </tripinfo>
    <tripinfo id="bgc_0" depart="0.00" departLane="-237132924_0" departPos="4.60" departSpeed="0.00" departDelay="0.00" arrival="104.00" arrivalLane="314039227#2_0" arrivalPos="29.34" arrivalSpeed="13.56" duration="104.00" routeLength="1182.66" waitingTime="0.00" waitingCount="0" stopTime="0.00" timeLoss="14.65" rerouteNo="0" devices="tripinfo_bgc_0 emissions_bgc_0" vType="car_default" speedFactor="1.06" vaporized="">
        <emissions CO_abs="3792.98" CO2_abs="309498.03" HC_abs="24.11" PMx_abs="4.80" NOx_abs="120.67" fuel_abs="98715.86" electricity_abs="0.00"/>
    </tripinfo>
    <tripinfo id="bgt_4" depart="48.00" departLane="217460929#0_0" departPos="12.10" departSpeed="0.00" departDelay="0.00" arrival="105.00" arrivalLane="217461038#1_0" arrivalPos="178.20" arrivalSpeed="21.85" duration="57.00" routeLength="680.29" waitingTime="0.00" waitingCount="0" stopTime="0.00" timeLoss="23.86" rerouteNo="0" devices="tripinfo_bgt_4 emissions_bgt_4" vType="truck_euro6" speedFactor="1.09" vaporized="">
        <emissions CO_abs="1971.66" CO2_abs="1491482.59" HC_abs="0.00" PMx_abs="232.13" NOx_abs="12320.78" fuel_abs="469178.06" electricity_abs="0.00"/>
    </tripinfo>
    <tripinfo id="bgc_8" depart="17.00" departLane="-29366288#1_0" departPos="4.60" departSpeed="0.00" departDelay="0.20" arrival="107.00" arrivalLane="557929943#1_0" arrivalPos="39.69" arrivalSpeed="13.21" duration="90.00" routeLength="841.90" waitingTime="0.00" waitingCount="0" stopTime="0.00" timeLoss="18.34" rerouteNo="0" devices="tripinfo_bgc_8 emissions_bgc_8" vType="car_default" speedFactor="1.12" vaporized="">
        <emissions CO_abs="4594.38" CO2_abs="279622.93" HC_abs="27.21" PMx_abs="4.70" NOx_abs="112.86" fuel_abs="89187.28" electricity_abs="0.00"/>
    </tripinfo>
    <tripinfo id="bgc_5" depart="11.00" departLane="314035994#1_0" departPos="4.60" departSpeed="0.00" departDelay="0.50" arrival="108.00" arrivalLane="-975337161#1_0" arrivalPos="7.42" arrivalSpeed="8.67" duration="97.00" routeLength="918.50" waitingTime="0.00" waitingCount="0" stopTime="0.00" timeLoss="17.00" rerouteNo="0" devices="tripinfo_bgc_5 emissions_bgc_5" vType="car_default" speedFactor="0.86" vaporized="">
        <emissions CO_abs="4010.00" CO2_abs="249195.44" HC_abs="23.91" PMx_abs="4.00" NOx_abs="99.33" fuel_abs="79482.46" electricity_abs="0.00"/>
    </tripinfo>
    <tripinfo id="bgc_10" depart="21.00" departLane="-1212551596_0" departPos="4.60" departSpeed="0.00" departDelay="0.00" arrival="117.00" arrivalLane="174967684#0_0" arrivalPos="106.72" arrivalSpeed="12.52" duration="96.00" routeLength="855.21" waitingTime="0.00" waitingCount="0" stopTime="0.00" timeLoss="16.38" rerouteNo="0" devices="tripinfo_bgc_10 emissions_bgc_10" vType="car_default" speedFactor="0.93" vaporized="">
        <emissions CO_abs="4579.11" CO2_abs="267345.35" HC_abs="26.89" PMx_abs="4.14" NOx_abs="105.57" fuel_abs="85271.83" electricity_abs="0.00"/>
    </tripinfo>
    <tripinfo id="bgc_33" depart="70.00" departLane="1350860316#3_0" departPos="4.60" departSpeed="0.00" departDelay="0.70" arrival="118.00" arrivalLane="29366696#0_0" arrivalPos="45.46" arrivalSpeed="8.60" duration="48.00" routeLength="347.89" waitingTime="1.00" waitingCount="1" stopTime="0.00" timeLoss="10.59" rerouteNo="0" devices="tripinfo_bgc_33 emissions_bgc_33" vType="car_default" speedFactor="1.09" vaporized="">
        <emissions CO_abs="2856.36" CO2_abs="134357.42" HC_abs="16.13" PMx_abs="2.35" NOx_abs="55.47" fuel_abs="42854.32" electricity_abs="0.00"/>
    </tripinfo>
    <tripinfo id="bgc_52" depart="110.00" departLane="-406646743#1_0" departPos="4.60" departSpeed="0.00" departDelay="0.80" arrival="118.00" arrivalLane="-406646743#1_0" arrivalPos="47.45" arrivalSpeed="7.06" duration="8.00" routeLength="42.85" waitingTime="0.00" waitingCount="0" stopTime="0.00" timeLoss="2.31" rerouteNo="0" devices="tripinfo_bgc_52 emissions_bgc_52" vType="car_default" speedFactor="0.91" vaporized="">
        <emissions CO_abs="718.96" CO2_abs="23841.67" HC_abs="3.82" PMx_abs="0.44" NOx_abs="10.03" fuel_abs="7604.59" electricity_abs="0.00"/>
    </tripinfo>
    <tripinfo id="bgt_5" depart="60.00" departLane="206900065#0_0" departPos="12.10" departSpeed="0.00" departDelay="0.00" arrival="119.00" arrivalLane="-24609247#6_0" arrivalPos="36.76" arrivalSpeed="8.69" duration="59.00" routeLength="737.96" waitingTime="0.00" waitingCount="0" stopTime="0.00" timeLoss="18.56" rerouteNo="0" devices="tripinfo_bgt_5 emissions_bgt_5" vType="truck_euro6" speedFactor="1.09" vaporized="">
        <emissions CO_abs="1652.63" CO2_abs="1210987.88" HC_abs="0.00" PMx_abs="196.86" NOx_abs="10097.66" fuel_abs="380938.84" electricity_abs="0.00"/>
    </tripinfo>
    <tripinfo id="bgc_35" depart="74.00" departLane="1221422824#0_0" departPos="4.60" departSpeed="0.00" departDelay="0.50" arrival="129.00" arrivalLane="-1212551598#2_0" arrivalPos="54.85" arrivalSpeed="8.86" duration="55.00" routeLength="435.69" waitingTime="0.00" waitingCount="0" stopTime="0.00" timeLoss="5.83" rerouteNo="0" devices="tripinfo_bgc_35 emissions_bgc_35" vType="car_default" speedFactor="1.09" vaporized="">
        <emissions CO_abs="2343.47" CO2_abs="123555.06" HC_abs="13.49" PMx_abs="1.84" NOx_abs="48.87" fuel_abs="39409.02" electricity_abs="0.00"/>
    </tripinfo>
    <tripinfo id="bgc_11" depart="24.00" departLane="513169636#1_0" departPos="4.60" departSpeed="0.00" departDelay="0.90" arrival="130.00" arrivalLane="-513169636#0_0" arrivalPos="110.18" arrivalSpeed="6.68" duration="106.00" routeLength="367.42" waitingTime="44.00" waitingCount="1" stopTime="0.00" timeLoss="54.22" rerouteNo="0" devices="tripinfo_bgc_11 emissions_bgc_11" vType="car_default" speedFactor="0.88" vaporized="">
        <emissions CO_abs="10320.05" CO2_abs="231741.33" HC_abs="52.36" PMx_abs="4.83" NOx_abs="100.61" fuel_abs="73918.21" electricity_abs="0.00"/>
    </tripinfo>
    <tripinfo id="bgc_31" depart="66.00" departLane="26091447#0_0" departPos="4.60" departSpeed="0.00" departDelay="0.90" arrival="132.00" arrivalLane="23917399#0_0" arrivalPos="32.98" arrivalSpeed="7.91" duration="66.00" routeLength="514.32" waitingTime="0.00" waitingCount="0" stopTime="0.00" timeLoss="9.25" rerouteNo="0" devices="tripinfo_bgc_31 emissions_bgc_31" vType="car_default" speedFactor="1.03" vaporized="">
        <emissions CO_abs="2983.72" CO2_abs="148364.97" HC_abs="16.99" PMx_abs="2.34" NOx_abs="59.62" fuel_abs="47322.31" electricity_abs="0.00"/>
    </tripinfo>
    <tripinfo id="bgc_32" depart="68.00" departLane="-428878586#2_0" departPos="4.60" departSpeed="0.00" departDelay="0.80" arrival="134.00" arrivalLane="-988295349_0" arrivalPos="43.00" arrivalSpeed="7.23" duration="66.00" routeLength="730.61" waitingTime="0.00" waitingCount="0" stopTime="0.00" timeLoss="7.88" rerouteNo="0" devices="tripinfo_bgc_32 emissions_bgc_32" vType="car_default" speedFactor="0.96" vaporized="">
        <emissions CO_abs="2317.37" CO2_abs="178764.51" HC_abs="14.47" PMx_abs="2.72" NOx_abs="69.38" fuel_abs="57017.93" electricity_abs="0.00"/>
    </tripinfo>
    <tripinfo id="bgc_7" depart="15.00" departLane="-975337161#0_0" departPos="4.60" departSpeed="0.00" departDelay="0.30" arrival="136.00" arrivalLane="26242405#0_0" arrivalPos="90.90" arrivalSpeed="7.63" duration="121.00" routeLength="1291.01" waitingTime="0.00" waitingCount="0" stopTime="0.00" timeLoss="16.07" rerouteNo="0" devices="tripinfo_bgc_7 emissions_bgc_7" vType="car_default" speedFactor="1.05" vaporized="">
        <emissions CO_abs="4372.33" CO2_abs="324851.34" HC_abs="26.91" PMx_abs="4.83" NOx_abs="125.30" fuel_abs="103613.34" electricity_abs="0.00"/>
    </tripinfo>
    <tripinfo id="bgc_19" depart="40.00" departLane="237132911_0" departPos="4.60" departSpeed="0.00" departDelay="0.10" arrival="146.00" arrivalLane="-26242019#4_0" arrivalPos="53.14" arrivalSpeed="6.60" duration="106.00" routeLength="807.27" waitingTime="0.00" waitingCount="0" stopTime="0.00" timeLoss="12.77" rerouteNo="0" devices="tripinfo_bgc_19 emissions_bgc_19" vType="car_default" speedFactor="0.92" vaporized="">
        <emissions CO_abs="4633.74" CO2_abs="223258.76" HC_abs="26.10" PMx_abs="3.29" NOx_abs="88.00" fuel_abs="71210.71" electricity_abs="0.00"/>
    </tripinfo>
    <tripinfo id="bgt_2" depart="24.00" departLane="314035994#1_0" departPos="12.10" departSpeed="0.00" departDelay="0.00" arrival="152.00" arrivalLane="26578873#1_0" arrivalPos="112.93" arrivalSpeed="7.77" duration="128.00" routeLength="1109.79" waitingTime="0.00" waitingCount="0" stopTime="0.00" timeLoss="33.59" rerouteNo="0" devices="tripinfo_bgt_2 emissions_bgt_2" vType="truck_euro6" speedFactor="0.97" vaporized="">
        <emissions CO_abs="2773.87" CO2_abs="1911608.97" HC_abs="0.00" PMx_abs="342.95" NOx_abs="16667.84" fuel_abs="601330.93" electricity_abs="0.00"/>
    </tripinfo>
    <tripinfo id="bgc_18" depart="38.00" departLane="314035994#2_0" departPos="4.60" departSpeed="0.00" departDelay="0.20" arrival="154.00" arrivalLane="174967686#5_0" arrivalPos="70.78" arrivalSpeed="11.99" duration="116.00" routeLength="883.43" waitingTime="8.00" waitingCount="1" stopTime="0.00" timeLoss="33.74" rerouteNo="0" devices="tripinfo_bgc_18 emissions_bgc_18" vType="car_default" speedFactor="0.87" vaporized="">
        <emissions CO_abs="7210.08" CO2_abs="325563.23" HC_abs="40.32" PMx_abs="5.78" NOx_abs="134.14" fuel_abs="103841.01" electricity_abs="0.00"/>
    </tripinfo>
    <tripinfo id="bgc_15" depart="32.00" departLane="-29366439_0" departPos="4.60" departSpeed="0.00" departDelay="0.50" arrival="170.00" arrivalLane="-29366469#1_0" arrivalPos="73.42" arrivalSpeed="8.35" duration="138.00" routeLength="1213.96" waitingTime="0.00" waitingCount="0" stopTime="0.00" timeLoss="19.07" rerouteNo="0" devices="tripinfo_bgc_15 emissions_bgc_15" vType="car_default" speedFactor="1.01" vaporized="">
        <emissions CO_abs="6269.97" CO2_abs="360412.18" HC_abs="36.81" PMx_abs="5.87" NOx_abs="144.99" fuel_abs="114955.87" electricity_abs="0.00"/>
    </tripinfo>
    <tripinfo id="bgc_3" depart="7.00" departLane="237132918_0" departPos="4.60" departSpeed="0.00" departDelay="0.70" arrival="171.00" arrivalLane="29366728#4_0" arrivalPos="55.69" arrivalSpeed="6.63" duration="164.00" routeLength="1771.52" waitingTime="0.00" waitingCount="0" stopTime="0.00" timeLoss="22.34" rerouteNo="0" devices="tripinfo_bgc_3 emissions_bgc_3" vType="car_default" speedFactor="0.89" vaporized="">
        <emissions CO_abs="5732.38" CO2_abs="414393.00" HC_abs="35.00" PMx_abs="6.26" NOx_abs="160.15" fuel_abs="132173.19" electricity_abs="0.00"/>
    </tripinfo>
    <tripinfo id="bgc_53" depart="112.00" departLane="156803987_0" departPos="4.60" departSpeed="0.00" departDelay="0.70" arrival="171.00" arrivalLane="237132907_0" arrivalPos="8.27" arrivalSpeed="9.75" duration="59.00" routeLength="509.46" waitingTime="0.00" waitingCount="0" stopTime="0.00" timeLoss="16.52" rerouteNo="0" devices="tripinfo_bgc_53 emissions_bgc_53" vType="car_default" speedFactor="0.91" vaporized="">
        <emissions CO_abs="3445.77" CO2_abs="184875.97" HC_abs="19.88" PMx_abs="3.28" NOx_abs="75.86" fuel_abs="58967.27" electricity_abs="0.00"/>
    </tripinfo>
    <tripinfo id="bgc_63" depart="133.00" departLane="-398287570#0_0" departPos="0.20" departSpeed="0.00" departDelay="0.70" arrival="175.00" arrivalLane="-156803982#1_0" arrivalPos="18.36" arrivalSpeed="12.83" duration="42.00" routeLength="425.43" waitingTime="0.00" waitingCount="0" stopTime="0.00" timeLoss="8.01" rerouteNo="0" devices="tripinfo_bgc_63 emissions_bgc_63" vType="car_default" speedFactor="1.00" vaporized="">
        <emissions CO_abs="2247.30" CO2_abs="142567.22" HC_abs="13.47" PMx_abs="2.47" NOx_abs="57.88" fuel_abs="45472.47" electricity_abs="0.00"/>
    </tripinfo>
    <tripinfo id="bgc_13" depart="28.00" departLane="-1212551598#2_0" departPos="4.60" departSpeed="0.00" departDelay="0.70" arrival="176.00" arrivalLane="-29366288#1_0" arrivalPos="100.62" arrivalSpeed="8.41" duration="148.00" routeLength="1726.48" waitingTime="0.00" waitingCount="0" stopTime="0.00" timeLoss="16.36" rerouteNo="0" devices="tripinfo_bgc_13 emissions_bgc_13" vType="car_default" speedFactor="1.16" vaporized="">
        <emissions CO_abs="4491.89" CO2_abs="397444.08" HC_abs="29.00" PMx_abs="5.74" NOx_abs="151.50" fuel_abs="126766.92" electricity_abs="0.00"/>
    </tripinfo>
    <tripinfo id="bgc_29" depart="61.00" departLane="29366773#1_0" departPos="4.60" departSpeed="0.00" departDelay="0.10" arrival="179.00" arrivalLane="-617259948#5_0" arrivalPos="53.67" arrivalSpeed="4.96" duration="118.00" routeLength="1051.54" waitingTime="0.00" waitingCount="0" stopTime="0.00" timeLoss="27.26" rerouteNo="0" devices="tripinfo_bgc_29 emissions_bgc_29" vType="car_default" speedFactor="1.10" vaporized="">
        <emissions CO_abs="6060.81" CO2_abs="334682.39" HC_abs="35.28" PMx_abs="5.72" NOx_abs="135.67" fuel_abs="106749.08" electricity_abs="0.00"/>
    </tripinfo>
    <tripinfo id="bgt_9" depart="108.00" departLane="-975337161#0_0" departPos="12.10" departSpeed="0.00" departDelay="0.00" arrival="184.00" arrivalLane="-29448148#1_0" arrivalPos="96.00" arrivalSpeed="12.73" duration="76.00" routeLength="684.56" waitingTime="0.00" waitingCount="0" stopTime="0.00" timeLoss="25.10" rerouteNo="0" devices="tripinfo_bgt_9 emissions_bgt_9" vType="truck_euro6" speedFactor="0.94" vaporized="">
        <emissions CO_abs="1970.50" CO2_abs="1405985.11" HC_abs="0.00" PMx_abs="239.90" NOx_abs="12050.21" fuel_abs="442280.73" electricity_abs="0.00"/>
    </tripinfo>
    <tripinfo id="bgc_58" depart="122.00" departLane="-29366728#3_0" departPos="4.60" departSpeed="0.00" departDelay="0.20" arrival="185.00" arrivalLane="314039202#1_0" arrivalPos="41.86" arrivalSpeed="13.76" duration="63.00" routeLength="610.74" waitingTime="0.00" waitingCount="0" stopTime="0.00" timeLoss="8.28" rerouteNo="0" devices="tripinfo_bgc_58 emissions_bgc_58" vType="car_default" speedFactor="0.98" vaporized="">
        <emissions CO_abs="2715.23" CO2_abs="170312.31" HC_abs="16.22" PMx_abs="2.73" NOx_abs="67.81" fuel_abs="54322.16" electricity_abs="0.00"/>
    </tripinfo>
    <tripinfo id="bgc_26" depart="55.00" departLane="398287570#2_0" departPos="4.60" departSpeed="0.00" departDelay="0.40" arrival="187.00" arrivalLane="314039227#1_0" arrivalPos="2.87" arrivalSpeed="12.73" duration="132.00" routeLength="1393.40" waitingTime="0.00" waitingCount="0" stopTime="0.00" timeLoss="23.26" rerouteNo="0" devices="tripinfo_bgc_26 emissions_bgc_26" vType="car_default" speedFactor="0.99" vaporized="">
        <emissions CO_abs="5465.17" CO2_abs="378439.97" HC_abs="33.27" PMx_abs="6.10" NOx_abs="149.86" fuel_abs="120705.41" electricity_abs="0.00"/>
    </tripinfo>
    <tripinfo id="bgc_27" depart="57.00" departLane="1350860316#1_0" departPos="4.60" departSpeed="0.00" departDelay="0.30" arrival="194.00" arrivalLane="217460907_0" arrivalPos="65.37" arrivalSpeed="13.26" duration="137.00" routeLength="1033.04" waitingTime="36.00" waitingCount="3" stopTime="0.00" timeLoss="58.38" rerouteNo="0" devices="tripinfo_bgc_27 emissions_bgc_27" vType="car_default" speedFactor="1.02" vaporized="">
        <emissions CO_abs="10715.06" CO2_abs="382173.25" HC_abs="57.20" PMx_abs="7.02" NOx_abs="156.86" fuel_abs="121898.48" electricity_abs="0.00"/>
    </tripinfo>
    <tripinfo id="F_TURMOIL.0" depart="0.00" departLane="24609247#4_0" departPos="4.60" departSpeed="0.00" departDelay="0.00" arrival="196.00" arrivalLane="24609247#4_0" arrivalPos="80.01" arrivalSpeed="7.47" duration="196.00" routeLength="75.41" waitingTime="0.00" waitingCount="0" stopTime="180.00" timeLoss="7.12" rerouteNo="0" devices="tripinfo_F_TURMOIL.0 emissions_F_TURMOIL.0" vType="car_default" speedFactor="1.03" vaporized="">
        <emissions CO_abs="1528.97" CO2_abs="48340.87" HC_abs="8.10" PMx_abs="0.99" NOx_abs="20.97" fuel_abs="15418.84" electricity_abs="0.00"/>
    </tripinfo>
    <tripinfo id="bgt_10" depart="120.00" departLane="-1221422824#3_0" departPos="12.10" departSpeed="0.00" departDelay="0.00" arrival="196.00" arrivalLane="-1212551598#0_0" arrivalPos="43.46" arrivalSpeed="7.81" duration="76.00" routeLength="500.68" waitingTime="0.00" waitingCount="0" stopTime="0.00" timeLoss="12.67" rerouteNo="0" devices="tripinfo_bgt_10 emissions_bgt_10" vType="truck_euro6" speedFactor="0.97" vaporized="">
        <emissions CO_abs="1399.54" CO2_abs="886629.07" HC_abs="0.00" PMx_abs="180.27" NOx_abs="8164.11" fuel_abs="278902.66" electricity_abs="0.00"/>
    </tripinfo>
    <tripinfo id="bgc_37" depart="78.00" departLane="-513169636#0_0" departPos="4.60" departSpeed="0.00" departDelay="0.30" arrival="197.00" arrivalLane="-26242017#4_0" arrivalPos="67.62" arrivalSpeed="7.13" duration="119.00" routeLength="886.71" waitingTime="0.00" waitingCount="0" stopTime="0.00" timeLoss="15.54" rerouteNo="0" devices="tripinfo_bgc_37 emissions_bgc_37" vType="car_default" speedFactor="0.90" vaporized="">
        <emissions CO_abs="5713.16" CO2_abs="266591.14" HC_abs="32.02" PMx_abs="4.12" NOx_abs="106.37" fuel_abs="85031.91" electricity_abs="0.00"/>
    </tripinfo>
    <tripinfo id="F_AVANTI.0" depart="0.00" departLane="156803978_0" departPos="4.60" departSpeed="0.00" departDelay="0.00" arrival="199.00" arrivalLane="156803978_0" arrivalPos="77.83" arrivalSpeed="4.88" duration="199.00" routeLength="73.23" waitingTime="0.00" waitingCount="0" stopTime="180.00" timeLoss="5.13" rerouteNo="0" devices="tripinfo_F_AVANTI.0 emissions_F_AVANTI.0" vType="car_default" speedFactor="1.01" vaporized="">
        <emissions CO_abs="1562.03" CO2_abs="42997.10" HC_abs="8.11" PMx_abs="0.85" NOx_abs="18.52" fuel_abs="13714.54" electricity_abs="0.00"/>
    </tripinfo>
    <tripinfo id="bgc_42" depart="89.00" departLane="203556989_0" departPos="4.60" departSpeed="0.00" departDelay="0.80" arrival="203.00" arrivalLane="113607629#4_0" arrivalPos="104.59" arrivalSpeed="4.92" duration="114.00" routeLength="939.64" waitingTime="0.00" waitingCount="0" stopTime="0.00" timeLoss="20.21" rerouteNo="0" devices="tripinfo_bgc_42 emissions_bgc_42" vType="car_default" speedFactor="1.10" vaporized="">
        <emissions CO_abs="5565.69" CO2_abs="291928.94" HC_abs="31.84" PMx_abs="4.81" NOx_abs="117.22" fuel_abs="93112.95" electricity_abs="0.00"/>
    </tripinfo>
    <tripinfo id="bgc_39" depart="82.00" departLane="29366439_0" departPos="4.60" departSpeed="0.00" departDelay="0.10" arrival="210.00" arrivalLane="174952924_0" arrivalPos="9.86" arrivalSpeed="13.86" duration="128.00" routeLength="984.57" waitingTime="4.00" waitingCount="2" stopTime="0.00" timeLoss="33.45" rerouteNo="0" devices="tripinfo_bgc_39 emissions_bgc_39" vType="car_default" speedFactor="0.85" vaporized="">
        <emissions CO_abs="7800.34" CO2_abs="351706.67" HC_abs="43.62" PMx_abs="6.30" NOx_abs="145.19" fuel_abs="112179.61" electricity_abs="0.00"/>
    </tripinfo>
    <tripinfo id="bgc_1" depart="3.00" departLane="29363538#9_0" departPos="4.60" departSpeed="0.00" departDelay="0.90" arrival="212.00" arrivalLane="-29366773#1_0" arrivalPos="54.43" arrivalSpeed="5.70" duration="209.00" routeLength="1346.86" waitingTime="10.00" waitingCount="2" stopTime="0.00" timeLoss="46.65" rerouteNo="0" devices="tripinfo_bgc_1 emissions_bgc_1" vType="car_default" speedFactor="0.83" vaporized="">
        <emissions CO_abs="12387.05" CO2_abs="485909.65" HC_abs="67.44" PMx_abs="8.45" NOx_abs="199.87" fuel_abs="154985.94" electricity_abs="0.00"/>
    </tripinfo>
    <tripinfo id="bgc_40" depart="84.00" departLane="324877657_0" departPos="4.60" departSpeed="0.00" departDelay="0.00" arrival="213.00" arrivalLane="-29366469#2_0" arrivalPos="83.26" arrivalSpeed="5.85" duration="129.00" routeLength="1253.09" waitingTime="0.00" waitingCount="0" stopTime="0.00" timeLoss="16.71" rerouteNo="0" devices="tripinfo_bgc_40 emissions_bgc_40" vType="car_default" speedFactor="0.85" vaporized="">
        <emissions CO_abs="4703.18" CO2_abs="314228.19" HC_abs="28.56" PMx_abs="4.72" NOx_abs="123.05" fuel_abs="100225.21" electricity_abs="0.00"/>
    </tripinfo>
    <tripinfo id="bgc_25" depart="54.00" departLane="-314035994#1_0" departPos="4.60" departSpeed="0.00" departDelay="1.50" arrival="216.00" arrivalLane="217460907_0" arrivalPos="65.37" arrivalSpeed="12.69" duration="162.00" routeLength="1870.14" waitingTime="1.00" waitingCount="1" stopTime="0.00" timeLoss="23.55" rerouteNo="0" devices="tripinfo_bgc_25 emissions_bgc_25" vType="car_default" speedFactor="1.17" vaporized="">
        <emissions CO_abs="5379.81" CO2_abs="436809.27" HC_abs="34.06" PMx_abs="6.77" NOx_abs="169.85" fuel_abs="139322.42" electricity_abs="0.00"/>
    </tripinfo>
    <tripinfo id="bgt_6" depart="72.00" departLane="-878811132_0" departPos="12.10" departSpeed="0.00" departDelay="0.00" arrival="221.00" arrivalLane="-558869958#1_0" arrivalPos="0.20" arrivalSpeed="8.23" duration="149.00" routeLength="1128.97" waitingTime="4.00" waitingCount="1" stopTime="0.00" timeLoss="40.20" rerouteNo="0" devices="tripinfo_bgt_6 emissions_bgt_6" vType="truck_euro6" speedFactor="1.02" vaporized="">
        <emissions CO_abs="3040.39" CO2_abs="2033151.41" HC_abs="0.00" PMx_abs="382.16" NOx_abs="18112.06" fuel_abs="639563.25" electricity_abs="0.00"/>
    </tripinfo>
    <tripinfo id="bgc_41" depart="87.00" departLane="1350860320#1_0" departPos="4.60" departSpeed="0.00" departDelay="0.90" arrival="221.00" arrivalLane="558869958#0_0" arrivalPos="70.84" arrivalSpeed="8.45" duration="134.00" routeLength="958.12" waitingTime="17.00" waitingCount="2" stopTime="0.00" timeLoss="41.39" rerouteNo="0" devices="tripinfo_bgc_41 emissions_bgc_41" vType="car_default" speedFactor="1.02" vaporized="">
        <emissions CO_abs="8867.50" CO2_abs="357625.43" HC_abs="48.60" PMx_abs="6.59" NOx_abs="148.83" fuel_abs="114067.83" electricity_abs="0.00"/>
    </tripinfo>
    <tripinfo id="bgc_14" depart="30.00" departLane="-878984947#3_0" departPos="4.60" departSpeed="0.00" departDelay="0.60" arrival="223.00" arrivalLane="1350860319#0_0" arrivalPos="5.50" arrivalSpeed="4.44" duration="193.00" routeLength="1051.42" waitingTime="62.00" waitingCount="2" stopTime="0.00" timeLoss="89.21" rerouteNo="0" devices="tripinfo_bgc_14 emissions_bgc_14" vType="car_default" speedFactor="1.02" vaporized="">
        <emissions CO_abs="16981.97" CO2_abs="502076.69" HC_abs="88.87" PMx_abs="9.86" NOx_abs="212.90" fuel_abs="160144.04" electricity_abs="0.00"/>
    </tripinfo>
    <tripinfo id="bgc_12" depart="26.00" departLane="-29363538#10_0" departPos="4.60" departSpeed="0.00" departDelay="0.80" arrival="225.00" arrivalLane="-878984947#1_0" arrivalPos="15.42" arrivalSpeed="7.69" duration="199.00" routeLength="1856.72" waitingTime="0.00" waitingCount="0" stopTime="0.00" timeLoss="27.55" rerouteNo="0" devices="tripinfo_bgc_12 emissions_bgc_12" vType="car_default" speedFactor="0.94" vaporized="">
        <emissions CO_abs="7955.36" CO2_abs="491930.59" HC_abs="46.95" PMx_abs="7.53" NOx_abs="192.82" fuel_abs="156904.78" electricity_abs="0.00"/>
    </tripinfo>
    <tripinfo id="bgt_7" depart="84.00" departLane="26242019#1_0" departPos="12.10" departSpeed="0.00" departDelay="0.00" arrival="226.00" arrivalLane="975337161#1_0" arrivalPos="7.42" arrivalSpeed="14.95" duration="142.00" routeLength="1233.87" waitingTime="9.00" waitingCount="1" stopTime="0.00" timeLoss="53.37" rerouteNo="0" devices="tripinfo_bgt_7 emissions_bgt_7" vType="truck_euro6" speedFactor="1.08" vaporized="">
        <emissions CO_abs="3519.48" CO2_abs="2496252.17" HC_abs="0.00" PMx_abs="430.28" NOx_abs="21507.06" fuel_abs="785246.33" electricity_abs="0.00"/>
    </tripinfo>
    <tripinfo id="bgc_34" depart="72.00" departLane="1352477107_0" departPos="4.60" departSpeed="0.00" departDelay="0.60" arrival="227.00" arrivalLane="-558869958#1_0" arrivalPos="0.20" arrivalSpeed="8.39" duration="155.00" routeLength="1052.20" waitingTime="45.00" waitingCount="2" stopTime="0.00" timeLoss="74.42" rerouteNo="0" devices="tripinfo_bgc_34 emissions_bgc_34" vType="car_default" speedFactor="1.04" vaporized="">