<?xml version="1.0" encoding="UTF-8"?>

<!-- generated on 2025-11-09 20:30:15 by Eclipse SUMO GUI Version 1.24.0
<sumoConfiguration xmlns:xsi="http://www.w3.org/2001/XMLSchema-instance" xsi:noNamespaceSchemaLocation="http://sumo.dlr.de/xsd/sumoConfiguration.xsd">

    <input>
        <net-file value="C:\projects\traffic-simulation-group\cfg\../net/marchtrenk_clean2.net.xml"/>
        <route-files value="C:\projects\traffic-simulation-group\cfg\../demand/baseline_all.rou.xml"/>
        <additional-files value="C:\projects\traffic-simulation-group\cfg\../add/stops.add.xml"/>
    </input>

    <output>
        <emission-output value="C:\projects\traffic-simulation-group\cfg\../outputs/emissions.xml"/>
        <summary-output value="C:\projects\traffic-simulation-group\cfg\../outputs/summary.xml"/>
        <tripinfo-output value="C:\projects\traffic-simulation-group\cfg\../outputs/tripinfo.xml"/>
    </output>

    <time>
        <begin value="0"/>
        <end value="7600"/>
    </time>

    <processing>
        <time-to-teleport value="-1"/>
    </processing>

    <report>
        <no-step-log value="true"/>
    </report>

</sumoConfiguration>
-->

<tripinfos xmlns:xsi="http://www.w3.org/2001/XMLSchema-instance" xsi:noNamespaceSchemaLocation="http://sumo.dlr.de/xsd/tripinfo_file.xsd">
    <tripinfo id="bgc_4" depart="9.00" departLane="-174967686#4_0" departPos="4.60" departSpeed="0.00" departDelay="0.60" arrival="69.00" arrivalLane="-1212551598#2_0" arrivalPos="54.85" arrivalSpeed="7.47" duration="60.00" routeLength="527.85" waitingTime="0.00" waitingCount="0" stopTime="0.00" timeLoss="9.61" rerouteNo="0" devices="tripinfo_bgc_4 emissions_bgc_4" vType="car_default" speedFactor="0.94" vaporized="">
        <emissions CO_abs="3131.64" CO2_abs="173461.72" HC_abs="18.29" PMx_abs="2.94" NOx_abs="70.59" fuel_abs="55326.72" electricity_abs="0.00"/>
    </tripinfo>
    <tripinfo id="bgc_22" depart="47.00" departLane="26242019#0_0" departPos="4.60" departSpeed="0.00" departDelay="0.80" arrival="69.00" arrivalLane="26242019#1_0" arrivalPos="48.69" arrivalSpeed="7.18" duration="22.00" routeLength="135.78" waitingTime="0.00" waitingCount="0" stopTime="0.00" timeLoss="3.81" rerouteNo="0" devices="tripinfo_bgc_22 emissions_bgc_22" vType="car_default" speedFactor="0.93" vaporized="">
        <emissions CO_abs="1409.18" CO2_abs="55228.69" HC_abs="7.67" PMx_abs="0.87" NOx_abs="22.30" fuel_abs="17615.86" electricity_abs="0.00"/>
    </tripinfo>
    <tripinfo id="bgc_9" depart="19.00" departLane="406853543#0_0" departPos="4.60" departSpeed="0.00" departDelay="0.10" arrival="82.00" arrivalLane="-1212551598#3_0" arrivalPos="40.84" arrivalSpeed="8.24" duration="63.00" routeLength="575.53" waitingTime="0.00" waitingCount="0" stopTime="0.00" timeLoss="9.87" rerouteNo="0" devices="tripinfo_bgc_9 emissions_bgc_9" vType="car_default" speedFactor="0.99" vaporized="">
        <emissions CO_abs="2824.90" CO2_abs="166430.90" HC_abs="16.65" PMx_abs="2.82" NOx_abs="67.46" fuel_abs="53084.08" electricity_abs="0.00"/>
    </tripinfo>
    <tripinfo id="bgt_0" depart="0.00" departLane="558918834#0_0" departPos="12.10" departSpeed="0.00" departDelay="0.00" arrival="89.00" arrivalLane="558783357#1_0" arrivalPos="207.58" arrivalSpeed="5.02" duration="89.00" routeLength="629.60" waitingTime="0.00" waitingCount="0" stopTime="0.00" timeLoss="15.38" rerouteNo="0" devices="tripinfo_bgt_0 emissions_bgt_0" vType="truck_euro6" speedFactor="0.97" vaporized="">
        <emissions CO_abs="1705.79" CO2_abs="1134393.05" HC_abs="0.00" PMx_abs="215.41" NOx_abs="10174.46" fuel_abs="356843.69" electricity_abs="0.00"/>
    </tripinfo>
    <tripinfo id="bgt_3" depart="36.00" departLane="217460929#0_0" departPos="12.10" departSpeed="0.00" departDelay="0.00" arrival="92.00" arrivalLane="217461038#1_0" arrivalPos="178.20" arrivalSpeed="19.84" duration="56.00" routeLength="680.29" waitingTime="0.00" waitingCount="0" stopTime="0.00" timeLoss="18.07" rerouteNo="0" devices="tripinfo_bgt_3 emissions_bgt_3" vType="truck_euro6" speedFactor="0.91" vaporized="">
        <emissions CO_abs="1865.34" CO2_abs="1402256.24" HC_abs="0.00" PMx_abs="219.99" NOx_abs="11594.07" fuel_abs="441108.94" electricity_abs="0.00"/>
    </tripinfo>
    <tripinfo id="bgc_23" depart="49.00" departLane="513169636#0_0" departPos="4.60" departSpeed="0.00" departDelay="0.70" arrival="94.00" arrivalLane="-878984947#1_0" arrivalPos="15.42" arrivalSpeed="8.73" duration="45.00" routeLength="363.01" waitingTime="0.00" waitingCount="0" stopTime="0.00" timeLoss="6.00" rerouteNo="0" devices="tripinfo_bgc_23 emissions_bgc_23" vType="car_default" speedFactor="1.15" vaporized="">
        <emissions CO_abs="1937.63" CO2_abs="102552.40" HC_abs="11.16" PMx_abs="1.51" NOx_abs="40.44" fuel_abs="32710.04" electricity_abs="0.00"/>
    </tripinfo>
    <tripinfo id="bgc_21" depart="45.00" departLane="-237132919#5_0" departPos="4.60" departSpeed="0.00" departDelay="0.90" arrival="96.00" arrivalLane="-398287565_0" arrivalPos="13.12" arrivalSpeed="12.82" duration="51.00" routeLength="505.24" waitingTime="0.00" waitingCount="0" stopTime="0.00" timeLoss="6.20" rerouteNo="0" devices="tripinfo_bgc_21 emissions_bgc_21" vType="car_default" speedFactor="1.13" vaporized="">
        <emissions CO_abs="2063.15" CO2_abs="137154.43" HC_abs="12.53" PMx_abs="2.09" NOx_abs="53.88" fuel_abs="43746.31" electricity_abs="0.00"/>
    </tripinfo>
    <tripinfo id="bgc_33" depart="70.00" departLane="1350860316#3_0" departPos="4.60" departSpeed="0.00" departDelay="0.70" arrival="117.00" arrivalLane="29366696#0_0" arrivalPos="45.46" arrivalSpeed="7.82" duration="47.00" routeLength="347.89" waitingTime="0.00" waitingCount="0" stopTime="0.00" timeLoss="9.73" rerouteNo="0" devices="tripinfo_bgc_33 emissions_bgc_33" vType="car_default" speedFactor="1.09" vaporized="">
        <emissions CO_abs="2866.65" CO2_abs="131731.06" HC_abs="16.08" PMx_abs="2.16" NOx_abs="53.42" fuel_abs="42016.83" electricity_abs="0.00"/>
    </tripinfo>
    <tripinfo id="bgc_52" depart="110.00" departLane="-406646743#1_0" departPos="4.60" departSpeed="0.00" departDelay="0.80" arrival="118.00" arrivalLane="-406646743#1_0" arrivalPos="47.45" arrivalSpeed="7.34" duration="8.00" routeLength="42.85" waitingTime="0.00" waitingCount="0" stopTime="0.00" timeLoss="1.54" rerouteNo="0" devices="tripinfo_bgc_52 emissions_bgc_52" vType="car_default" speedFactor="0.91" vaporized="">
        <emissions CO_abs="629.60" CO2_abs="24090.35" HC_abs="3.43" PMx_abs="0.45" NOx_abs="10.20" fuel_abs="7683.84" electricity_abs="0.00"/>
    </tripinfo>
    <tripinfo id="bgc_0" depart="0.00" departLane="-237132924_0" departPos="4.60" departSpeed="0.00" departDelay="0.00" arrival="122.00" arrivalLane="314039227#2_0" arrivalPos="25.43" arrivalSpeed="13.10" duration="122.00" routeLength="1300.98" waitingTime="0.00" waitingCount="0" stopTime="0.00" timeLoss="14.97" rerouteNo="0" devices="tripinfo_bgc_0 emissions_bgc_0" vType="car_default" speedFactor="1.06" vaporized="">
        <emissions CO_abs="4155.12" CO2_abs="310493.24" HC_abs="25.81" PMx_abs="4.69" NOx_abs="120.82" fuel_abs="99033.63" electricity_abs="0.00"/>
    </tripinfo>
    <tripinfo id="bgt_4" depart="48.00" departLane="206900065#0_0" departPos="12.10" departSpeed="0.00" departDelay="0.00" arrival="123.00" arrivalLane="-24609247#6_0" arrivalPos="38.27" arrivalSpeed="8.64" duration="75.00" routeLength="705.38" waitingTime="11.00" waitingCount="1" stopTime="0.00" timeLoss="36.14" rerouteNo="0" devices="tripinfo_bgt_4 emissions_bgt_4" vType="truck_euro6" speedFactor="1.09" vaporized="">
        <emissions CO_abs="1984.60" CO2_abs="1418936.27" HC_abs="0.00" PMx_abs="241.37" NOx_abs="12146.93" fuel_abs="446354.89" electricity_abs="0.00"/>
    </tripinfo>
    <tripinfo id="bgc_10" depart="21.00" departLane="-1212551596_0" departPos="4.60" departSpeed="0.00" departDelay="0.00" arrival="129.00" arrivalLane="174967684#0_0" arrivalPos="106.72" arrivalSpeed="12.66" duration="108.00" routeLength="855.34" waitingTime="11.00" waitingCount="1" stopTime="0.00" timeLoss="28.29" rerouteNo="0" devices="tripinfo_bgc_10 emissions_bgc_10" vType="car_default" speedFactor="0.93" vaporized="">
        <emissions CO_abs="6247.92" CO2_abs="283741.60" HC_abs="34.82" PMx_abs="4.79" NOx_abs="114.61" fuel_abs="90501.96" electricity_abs="0.00"/>
    </tripinfo>
    <tripinfo id="bgc_11" depart="24.00" departLane="513169636#1_0" departPos="4.60" departSpeed="0.00" departDelay="0.90" arrival="130.00" arrivalLane="-513169636#0_0" arrivalPos="110.18" arrivalSpeed="6.74" duration="106.00" routeLength="367.42" waitingTime="45.00" waitingCount="1" stopTime="0.00" timeLoss="54.84" rerouteNo="0" devices="tripinfo_bgc_11 emissions_bgc_11" vType="car_default" speedFactor="0.88" vaporized="">
        <emissions CO_abs="10780.98" CO2_abs="242211.68" HC_abs="54.69" PMx_abs="4.96" NOx_abs="104.60" fuel_abs="77258.02" electricity_abs="0.00"/>
    </tripinfo>
    <tripinfo id="bgc_31" depart="66.00" departLane="26091447#0_0" departPos="4.60" departSpeed="0.00" departDelay="0.90" arrival="132.00" arrivalLane="23917399#0_0" arrivalPos="32.98" arrivalSpeed="8.00" duration="66.00" routeLength="514.32" waitingTime="0.00" waitingCount="0" stopTime="0.00" timeLoss="9.55" rerouteNo="0" devices="tripinfo_bgc_31 emissions_bgc_31" vType="car_default" speedFactor="1.03" vaporized="">
        <emissions CO_abs="3012.54" CO2_abs="147943.49" HC_abs="17.10" PMx_abs="2.30" NOx_abs="59.27" fuel_abs="47187.94" electricity_abs="0.00"/>
    </tripinfo>
    <tripinfo id="bgc_8" depart="17.00" departLane="-29366288#1_0" departPos="4.60" departSpeed="0.00" departDelay="0.20" arrival="133.00" arrivalLane="557929943#1_0" arrivalPos="39.69" arrivalSpeed="13.71" duration="116.00" routeLength="838.37" waitingTime="29.00" waitingCount="1" stopTime="0.00" timeLoss="46.47" rerouteNo="0" devices="tripinfo_bgc_8 emissions_bgc_8" vType="car_default" speedFactor="1.12" vaporized="">
        <emissions CO_abs="9186.80" CO2_abs="354533.86" HC_abs="49.88" PMx_abs="6.52" NOx_abs="146.33" fuel_abs="113082.08" electricity_abs="0.00"/>
    </tripinfo>
    <tripinfo id="bgc_5" depart="11.00" departLane="314035994#1_0" departPos="4.60" departSpeed="0.00" departDelay="0.50" arrival="134.00" arrivalLane="-975337161#1_0" arrivalPos="7.42" arrivalSpeed="11.22" duration="123.00" routeLength="878.52" waitingTime="34.00" waitingCount="1" stopTime="0.00" timeLoss="52.28" rerouteNo="0" devices="tripinfo_bgc_5 emissions_bgc_5" vType="car_default" speedFactor="0.86" vaporized="">
        <emissions CO_abs="9830.94" CO2_abs="355220.32" HC_abs="52.92" PMx_abs="6.65" NOx_abs="147.48" fuel_abs="113301.30" electricity_abs="0.00"/>
    </tripinfo>
    <tripinfo id="bgc_32" depart="68.00" departLane="-428878586#2_0" departPos="4.60" departSpeed="0.00" departDelay="0.80" arrival="134.00" arrivalLane="-988295349_0" arrivalPos="43.00" arrivalSpeed="7.79" duration="66.00" routeLength="730.61" waitingTime="0.00" waitingCount="0" stopTime="0.00" timeLoss="8.02" rerouteNo="0" devices="tripinfo_bgc_32 emissions_bgc_32" vType="car_default" speedFactor="0.96" vaporized="">
        <emissions CO_abs="2286.98" CO2_abs="174076.02" HC_abs="14.20" PMx_abs="2.67" NOx_abs="67.83" fuel_abs="55522.49" electricity_abs="0.00"/>
    </tripinfo>
    <tripinfo id="bgc_35" depart="74.00" departLane="1221422824#0_0" departPos="4.60" departSpeed="0.00" departDelay="0.50" arrival="134.00" arrivalLane="-1212551598#2_0" arrivalPos="54.85" arrivalSpeed="8.80" duration="60.00" routeLength="435.69" waitingTime="1.00" waitingCount="1" stopTime="0.00" timeLoss="10.47" rerouteNo="0" devices="tripinfo_bgc_35 emissions_bgc_35" vType="car_default" speedFactor="1.09" vaporized="">
        <emissions CO_abs="3128.27" CO2_abs="137533.28" HC_abs="17.39" PMx_abs="2.17" NOx_abs="55.24" fuel_abs="43867.69" electricity_abs="0.00"/>
    </tripinfo>
    <tripinfo id="bgc_19" depart="40.00" departLane="237132911_0" departPos="4.60" departSpeed="0.00" departDelay="0.10" arrival="144.00" arrivalLane="-26242019#4_0" arrivalPos="53.14" arrivalSpeed="7.13" duration="104.00" routeLength="811.21" waitingTime="0.00" waitingCount="0" stopTime="0.00" timeLoss="10.74" rerouteNo="0" devices="tripinfo_bgc_19 emissions_bgc_19" vType="car_default" speedFactor="0.92" vaporized="">
        <emissions CO_abs="4269.51" CO2_abs="211367.36" HC_abs="24.18" PMx_abs="3.16" NOx_abs="83.53" fuel_abs="67417.70" electricity_abs="0.00"/>
    </tripinfo>
    <tripinfo id="bgc_7" depart="15.00" departLane="-975337161#0_0" departPos="4.60" departSpeed="0.00" departDelay="0.30" arrival="154.00" arrivalLane="26242405#0_0" arrivalPos="90.90" arrivalSpeed="8.48" duration="139.00" routeLength="1278.29" waitingTime="16.00" waitingCount="2" stopTime="0.00" timeLoss="36.33" rerouteNo="0" devices="tripinfo_bgc_7 emissions_bgc_7" vType="car_default" speedFactor="1.05" vaporized="">
        <emissions CO_abs="8151.18" CO2_abs="381317.18" HC_abs="45.77" PMx_abs="6.73" NOx_abs="155.23" fuel_abs="121624.13" electricity_abs="0.00"/>
    </tripinfo>
    <tripinfo id="bgc_53" depart="112.00" departLane="156803987_0" departPos="4.60" departSpeed="0.00" departDelay="0.70" arrival="160.00" arrivalLane="237132907_0" arrivalPos="8.27" arrivalSpeed="9.65" duration="48.00" routeLength="503.55" waitingTime="0.00" waitingCount="0" stopTime="0.00" timeLoss="9.78" rerouteNo="0" devices="tripinfo_bgc_53 emissions_bgc_53" vType="car_default" speedFactor="0.91" vaporized="">
        <emissions CO_abs="2408.45" CO2_abs="153864.04" HC_abs="14.31" PMx_abs="2.57" NOx_abs="61.55" fuel_abs="49075.75" electricity_abs="0.00"/>
    </tripinfo>
    <tripinfo id="bgc_24" depart="51.00" departLane="314035992_0" departPos="4.60" departSpeed="0.00" departDelay="0.60" arrival="164.00" arrivalLane="23755649#1_0" arrivalPos="9.50" arrivalSpeed="7.37" duration="113.00" routeLength="353.38" waitingTime="57.00" waitingCount="3" stopTime="0.00" timeLoss="79.28" rerouteNo="0" devices="tripinfo_bgc_24 emissions_bgc_24" vType="car_default" speedFactor="1.01" vaporized="">
        <emissions CO_abs="13804.15" CO2_abs="324104.85" HC_abs="70.43" PMx_abs="7.13" NOx_abs="142.78" fuel_abs="103378.47" electricity_abs="0.00"/>
    </tripinfo>
    <tripinfo id="bgc_34" depart="72.00" departLane="1352477107_0" departPos="4.60" departSpeed="0.00" departDelay="0.60" arrival="166.00" arrivalLane="-558869958#1_0" arrivalPos="0.33" arrivalSpeed="7.77" duration="94.00" routeLength="840.60" waitingTime="0.00" waitingCount="0" stopTime="0.00" timeLoss="15.56" rerouteNo="0" devices="tripinfo_bgc_34 emissions_bgc_34" vType="car_default" speedFactor="1.04" vaporized="">
        <emissions CO_abs="4476.44" CO2_abs="264110.34" HC_abs="26.36" PMx_abs="4.31" NOx_abs="106.03" fuel_abs="84239.68" electricity_abs="0.00"/>
    </tripinfo>
    <tripinfo id="bgt_8" depart="96.00" departLane="-975337161#0_0" departPos="12.10" departSpeed="0.00" departDelay="0.00" arrival="169.00" arrivalLane="-29448148#1_0" arrivalPos="96.00" arrivalSpeed="13.65" duration="73.00" routeLength="684.56" waitingTime="0.00" waitingCount="0" stopTime="0.00" timeLoss="25.60" rerouteNo="0" devices="tripinfo_bgt_8 emissions_bgt_8" vType="truck_euro6" speedFactor="1.01" vaporized="">
        <emissions CO_abs="1929.42" CO2_abs="1392945.71" HC_abs="0.00" PMx_abs="233.52" NOx_abs="11860.45" fuel_abs="438179.64" electricity_abs="0.00"/>
    </tripinfo>
    <tripinfo id="bgc_63" depart="133.00" departLane="-398287570#0_0" departPos="0.20" departSpeed="0.00" departDelay="0.70" arrival="169.00" arrivalLane="-156803982#1_0" arrivalPos="19.22" arrivalSpeed="13.10" duration="36.00" routeLength="420.02" waitingTime="0.00" waitingCount="0" stopTime="0.00" timeLoss="4.73" rerouteNo="0" devices="tripinfo_bgc_63 emissions_bgc_63" vType="car_default" speedFactor="1.00" vaporized="">
        <emissions CO_abs="1394.00" CO2_abs="106152.79" HC_abs="8.74" PMx_abs="1.63" NOx_abs="41.40" fuel_abs="33858.01" electricity_abs="0.00"/>
    </tripinfo>
    <tripinfo id="bgc_13" depart="28.00" departLane="-1212551598#2_0" departPos="4.60" departSpeed="0.00" departDelay="0.70" arrival="177.00" arrivalLane="-29366288#1_0" arrivalPos="100.62" arrivalSpeed="9.58" duration="149.00" routeLength="1726.48" waitingTime="0.00" waitingCount="0" stopTime="0.00" timeLoss="17.54" rerouteNo="0" devices="tripinfo_bgc_13 emissions_bgc_13" vType="car_default" speedFactor="1.16" vaporized="">
        <emissions CO_abs="4845.09" CO2_abs="415366.19" HC_abs="30.85" PMx_abs="6.03" NOx_abs="158.55" fuel_abs="132483.32" electricity_abs="0.00"/>
    </tripinfo>
    <tripinfo id="bgc_29" depart="61.00" departLane="29366773#1_0" departPos="4.60" departSpeed="0.00" departDelay="0.10" arrival="178.00" arrivalLane="-617259948#5_0" arrivalPos="53.67" arrivalSpeed="5.89" duration="117.00" routeLength="1049.62" waitingTime="8.00" waitingCount="2" stopTime="0.00" timeLoss="27.46" rerouteNo="0" devices="tripinfo_bgc_29 emissions_bgc_29" vType="car_default" speedFactor="1.10" vaporized="">
        <emissions CO_abs="6643.95" CO2_abs="342898.61" HC_abs="38.13" PMx_abs="5.92" NOx_abs="139.15" fuel_abs="109369.92" electricity_abs="0.00"/>
    </tripinfo>
    <tripinfo id="bgc_27" depart="57.00" departLane="1350860316#1_0" departPos="4.60" departSpeed="0.00" departDelay="0.30" arrival="180.00" arrivalLane="217460907_0" arrivalPos="65.37" arrivalSpeed="13.32" duration="123.00" routeLength="1030.57" waitingTime="24.00" waitingCount="2" stopTime="0.00" timeLoss="46.06" rerouteNo="0" devices="tripinfo_bgc_27 emissions_bgc_27" vType="car_default" speedFactor="1.02" vaporized="">
        <emissions CO_abs="8190.30" CO2_abs="333311.53" HC_abs="44.64" PMx_abs="5.83" NOx_abs="134.53" fuel_abs="106313.12" electricity_abs="0.00"/>
    </tripinfo>
    <tripinfo id="bgt_1" depart="12.00" departLane="-1352477107_0" departPos="12.10" departSpeed="0.00" departDelay="0.00" arrival="184.00" arrivalLane="-174967686#1_0" arrivalPos="26.79" arrivalSpeed="14.42" duration="172.00" routeLength="1756.34" waitingTime="18.00" waitingCount="1" stopTime="0.00" timeLoss="60.28" rerouteNo="0" devices="tripinfo_bgt_1 emissions_bgt_1" vType="truck_euro6" speedFactor="1.05" vaporized="">
        <emissions CO_abs="4469.56" CO2_abs="3212588.32" HC_abs="0.00" PMx_abs="540.79" NOx_abs="27313.86" fuel_abs="1010582.41" electricity_abs="0.00"/>
    </tripinfo>
    <tripinfo id="bgc_58" depart="122.00" departLane="-29366728#3_0" departPos="4.60" departSpeed="0.00" departDelay="0.20" arrival="190.00" arrivalLane="314039202#1_0" arrivalPos="41.86" arrivalSpeed="12.63" duration="68.00" routeLength="606.49" waitingTime="2.00" waitingCount="1" stopTime="0.00" timeLoss="12.30" rerouteNo="0" devices="tripinfo_bgc_58 emissions_bgc_58" vType="car_default" speedFactor="0.98" vaporized="">
        <emissions CO_abs="3594.95" CO2_abs="193509.68" HC_abs="20.62" PMx_abs="3.06" NOx_abs="76.74" fuel_abs="61721.47" electricity_abs="0.00"/>
    </tripinfo>
    <tripinfo id="bgt_6" depart="72.00" departLane="26242019#1_0" departPos="12.10" departSpeed="0.00" departDelay="0.00" arrival="192.00" arrivalLane="975337161#1_0" arrivalPos="7.42" arrivalSpeed="13.96" duration="120.00" routeLength="1228.97" waitingTime="0.00" waitingCount="0" stopTime="0.00" timeLoss="30.75" rerouteNo="0" devices="tripinfo_bgt_6 emissions_bgt_6" vType="truck_euro6" speedFactor="1.02" vaporized="">
        <emissions CO_abs="3115.80" CO2_abs="2235730.68" HC_abs="0.00" PMx_abs="377.03" NOx_abs="19003.40" fuel_abs="703292.05" electricity_abs="0.00"/>
    </tripinfo>
    <tripinfo id="bgt_9" depart="108.00" departLane="-1221422824#3_0" departPos="12.10" departSpeed="0.00" departDelay="0.00" arrival="192.00" arrivalLane="-1212551598#0_0" arrivalPos="43.46" arrivalSpeed="7.83" duration="84.00" routeLength="500.68" waitingTime="2.00" waitingCount="1" stopTime="0.00" timeLoss="18.16" rerouteNo="0" devices="tripinfo_bgt_9 emissions_bgt_9" vType="truck_euro6" speedFactor="0.94" vaporized="">
        <emissions CO_abs="1527.00" CO2_abs="968275.36" HC_abs="0.00" PMx_abs="197.28" NOx_abs="8964.10" fuel_abs="304587.03" electricity_abs="0.00"/>
    </tripinfo>
    <tripinfo id="bgc_39" depart="82.00" departLane="29366439_0" departPos="4.60" departSpeed="0.00" departDelay="0.10" arrival="193.00" arrivalLane="174952924_0" arrivalPos="9.86" arrivalSpeed="13.56" duration="111.00" routeLength="979.67" waitingTime="1.00" waitingCount="1" stopTime="0.00" timeLoss="19.35" rerouteNo="0" devices="tripinfo_bgc_39 emissions_bgc_39" vType="car_default" speedFactor="0.85" vaporized="">
        <emissions CO_abs="5433.55" CO2_abs="299459.50" HC_abs="31.41" PMx_abs="4.75" NOx_abs="118.85" fuel_abs="95514.94" electricity_abs="0.00"/>
    </tripinfo>
    <tripinfo id="F_TURMOIL.0" depart="0.00" departLane="24609247#4_0" departPos="4.60" departSpeed="0.00" departDelay="0.00" arrival="196.00" arrivalLane="24609247#4_0" arrivalPos="80.01" arrivalSpeed="8.05" duration="196.00" routeLength="75.41" waitingTime="0.00" waitingCount="0" stopTime="180.00" timeLoss="6.69" rerouteNo="0" devices="tripinfo_F_TURMOIL.0 emissions_F_TURMOIL.0" vType="car_default" speedFactor="1.03" vaporized="">
        <emissions CO_abs="1529.02" CO2_abs="51692.44" HC_abs="8.17" PMx_abs="1.02" NOx_abs="22.17" fuel_abs="16487.83" electricity_abs="0.00"/>
    </tripinfo>
    <tripinfo id="F_AVANTI.0" depart="0.00" departLane="156803978_0" departPos="4.60" departSpeed="0.00" departDelay="0.00" arrival="199.00" arrivalLane="156803978_0" arrivalPos="77.83" arrivalSpeed="5.05" duration="199.00" routeLength="73.23" waitingTime="0.00" waitingCount="0" stopTime="180.00" timeLoss="5.52" rerouteNo="0" devices="tripinfo_F_AVANTI.0 emissions_F_AVANTI.0" vType="car_default" speedFactor="1.01" vaporized="">
        <emissions CO_abs="1483.87" CO2_abs="39933.89" HC_abs="7.68" PMx_abs="0.80" NOx_abs="17.28" fuel_abs="12737.49" electricity_abs="0.00"/>
    </tripinfo>
    <tripinfo id="bgc_26" depart="55.00" departLane="398287570#2_0" departPos="4.60" departSpeed="0.00" departDelay="0.40" arrival="201.00" arrivalLane="314039227#1_0" arrivalPos="2.87" arrivalSpeed="13.84" duration="146.00" routeLength="1509.36" waitingTime="0.00" waitingCount="0" stopTime="0.00" timeLoss="20.18" rerouteNo="0" devices="tripinfo_bgc_26 emissions_bgc_26" vType="car_default" speedFactor="0.99" vaporized="">
        <emissions CO_abs="5619.29" CO2_abs="388099.41" HC_abs="34.22" PMx_abs="6.02" NOx_abs="152.18" fuel_abs="123786.63" electricity_abs="0.00"/>
    </tripinfo>
    <tripinfo id="bgc_3" depart="7.00" departLane="237132918_0" departPos="4.60" departSpeed="0.00" departDelay="0.70" arrival="209.00" arrivalLane="29366728#4_0" arrivalPos="55.69" arrivalSpeed="6.34" duration="202.00" routeLength="1730.37" waitingTime="44.00" waitingCount="3" stopTime="0.00" timeLoss="66.80" rerouteNo="0" devices="tripinfo_bgc_3 emissions_bgc_3" vType="car_default" speedFactor="0.89" vaporized="">
        <emissions CO_abs="12290.74" CO2_abs="499895.83" HC_abs="66.74" PMx_abs="8.30" NOx_abs="198.05" fuel_abs="159447.43" electricity_abs="0.00"/>
    </tripinfo>
    <tripinfo id="bgc_1" depart="3.00" departLane="29363538#9_0" departPos="4.60" departSpeed="0.00" departDelay="0.90" arrival="214.00" arrivalLane="-29366773#1_0" arrivalPos="54.43" arrivalSpeed="6.78" duration="211.00" routeLength="1354.59" waitingTime="25.00" waitingCount="1" stopTime="0.00" timeLoss="54.81" rerouteNo="0" devices="tripinfo_bgc_1 emissions_bgc_1" vType="car_default" speedFactor="0.83" vaporized="">
        <emissions CO_abs="13136.51" CO2_abs="468826.26" HC_abs="70.45" PMx_abs="8.00" NOx_abs="191.09" fuel_abs="149538.01" electricity_abs="0.00"/>
    </tripinfo>
    <tripinfo id="bgt_11" depart="132.00" departLane="-428878586#4_0" departPos="5.88" departSpeed="0.00" departDelay="0.00" arrival="216.00" arrivalLane="406853538#0_0" arrivalPos="179.74" arrivalSpeed="13.80" duration="84.00" routeLength="713.80" waitingTime="0.00" waitingCount="0" stopTime="0.00" timeLoss="19.14" rerouteNo="0" devices="tripinfo_bgt_11 emissions_bgt_11" vType="truck_euro6" speedFactor="1.02" vaporized="">
        <emissions CO_abs="1901.10" CO2_abs="1295449.44" HC_abs="0.00" PMx_abs="236.27" NOx_abs="11366.49" fuel_abs="407506.18" electricity_abs="0.00"/>
    </tripinfo>
    <tripinfo id="bgc_20" depart="42.00" departLane="975337161#1_0" departPos="4.60" departSpeed="0.00" departDelay="0.00" arrival="218.00" arrivalLane="35145512#0_0" arrivalPos="7.39" arrivalSpeed="9.32" duration="176.00" routeLength="1488.60" waitingTime="0.00" waitingCount="0" stopTime="0.00" timeLoss="19.71" rerouteNo="0" devices="tripinfo_bgc_20 emissions_bgc_20" vType="car_default" speedFactor="0.95" vaporized="">
        <emissions CO_abs="6977.27" CO2_abs="380305.51" HC_abs="40.31" PMx_abs="5.58" NOx_abs="148.72" fuel_abs="121301.92" electricity_abs="0.00"/>
    </tripinfo>
    <tripinfo id="bgc_44" depart="93.00" departLane="558918834#0_0" departPos="4.60" departSpeed="0.00" departDelay="0.60" arrival="218.00" arrivalLane="-113607625#1_0" arrivalPos="113.49" arrivalSpeed="2.12" duration="125.00" routeLength="621.84" waitingTime="0.00" waitingCount="0" stopTime="0.00" timeLoss="25.46" rerouteNo="0" devices="tripinfo_bgc_44 emissions_bgc_44" vType="car_default" speedFactor="0.90" vaporized="">
        <emissions CO_abs="7539.95" CO2_abs="240127.10" HC_abs="39.85" PMx_abs="4.46" NOx_abs="100.63" fuel_abs="76591.62" electricity_abs="0.00"/>
    </tripinfo>
    <tripinfo id="bgc_15" depart="32.00" departLane="-29366439_0" departPos="4.60" departSpeed="0.00" departDelay="0.50" arrival="220.00" arrivalLane="-29366469#1_0" arrivalPos="73.42" arrivalSpeed="8.22" duration="188.00" routeLength="1198.50" waitingTime="48.00" waitingCount="2" stopTime="0.00" timeLoss="72.36" rerouteNo="0" devices="tripinfo_bgc_15 emissions_bgc_15" vType="car_default" speedFactor="1.01" vaporized="">
        <emissions CO_abs="14587.63" CO2_abs="497249.17" HC_abs="77.86" PMx_abs="9.27" NOx_abs="207.40" fuel_abs="158603.41" electricity_abs="0.00"/>
    </tripinfo>
    <tripinfo id="bgt_5" depart="60.00" departLane="-878811132_0" departPos="12.10" departSpeed="0.00" departDelay="0.00" arrival="224.00" arrivalLane="-558869958#1_0" arrivalPos="0.33" arrivalSpeed="8.98" duration="164.00" routeLength="1095.13" waitingTime="21.00" waitingCount="1" stopTime="0.00" timeLoss="65.72" rerouteNo="0" devices="tripinfo_bgt_5 emissions_bgt_5" vType="truck_euro6" speedFactor="1.09" vaporized="">
        <emissions CO_abs="3264.54" CO2_abs="2148725.22" HC_abs="0.00" PMx_abs="414.81" NOx_abs="19440.10" fuel_abs="675920.27" electricity_abs="0.00"/>
    </tripinfo>
    <tripinfo id="bgc_40" depart="84.00" departLane="324877657_0" departPos="4.60" departSpeed="0.00" departDelay="0.00" arrival="227.00" arrivalLane="-29366469#2_0" arrivalPos="83.26" arrivalSpeed="6.92" duration="143.00" routeLength="1253.84" waitingTime="8.00" waitingCount="1" stopTime="0.00" timeLoss="31.74" rerouteNo="0" devices="tripinfo_bgc_40 emissions_bgc_40" vType="car_default" speedFactor="0.85" vaporized="">
        <emissions CO_abs="6732.57" CO2_abs="343429.37" HC_abs="38.51" PMx_abs="5.38" NOx_abs="135.95" fuel_abs="109539.89" electricity_abs="0.00"/>
    </tripinfo>
    <tripinfo id="bgc_37" depart="78.00" departLane="-513169636#0_0" departPos="4.60" departSpeed="0.00" departDelay="0.30" arrival="237.00" arrivalLane="-26242017#4_0" arrivalPos="67.62" arrivalSpeed="7.16" duration="159.00" routeLength="871.60" waitingTime="45.00" waitingCount="1" stopTime="0.00" timeLoss="59.98" rerouteNo="0" devices="tripinfo_bgc_37 emissions_bgc_37" vType="car_default" speedFactor="0.90" vaporized="">
        <emissions CO_abs="12292.46" CO2_abs="358859.56" HC_abs="64.23" PMx_abs="6.73" NOx_abs="150.37" fuel_abs="114463.49" electricity_abs="0.00"/>
    </tripinfo>
    <tripinfo id="bgc_14" depart="30.00" departLane="-878984947#3_0" departPos="4.60" departSpeed="0.00" departDelay="0.60" arrival="240.00" arrivalLane="1350860319#0_0" arrivalPos="5.50" arrivalSpeed="4.83" duration="210.00" routeLength="1033.64" waitingTime="75.00" waitingCount="5" stopTime="0.00" timeLoss="110.75" rerouteNo="0" devices="tripinfo_bgc_14 emissions_bgc_14" vType="car_default" speedFactor="1.02" vaporized="">
        <emissions CO_abs="20060.55" CO2_abs="562161.18" HC_abs="104.41" PMx_abs="11.27" NOx_abs="239.93" fuel_abs="179309.20" electricity_abs="0.00"/>
    </tripinfo>
    <tripinfo id="bgc_18" depart="38.00" departLane="314035994#2_0" departPos="4.60" departSpeed="0.00" departDelay="0.20" arrival="240.00" arrivalLane="174967686#5_0" arrivalPos="70.78" arrivalSpeed="11.96" duration="202.00" routeLength="880.99" waitingTime="88.00" waitingCount="3" stopTime="0.00" timeLoss="122.18" rerouteNo="0" devices="tripinfo_bgc_18 emissions_bgc_18" vType="car_default" speedFactor="0.87" vaporized="">
        <emissions CO_abs="21521.62" CO2_abs="557960.07" HC_abs="111.03" PMx_abs="11.58" NOx_abs="240.73" fuel_abs="177969.78" electricity_abs="0.00"/>
    </tripinfo>
    <tripinfo id="bgc_74" depart="156.00" departLane="-23917399#0_0" departPos="4.60" departSpeed="0.00" departDelay="0.60" arrival="240.00" arrivalLane="26242023#0_0" arrivalPos="200.26" arrivalSpeed="6.83" duration="84.00" routeLength="748.22" waitingTime="0.00" waitingCount="0" stopTime="0.00" timeLoss="11.49" rerouteNo="0" devices="tripinfo_bgc_74 emissions_bgc_74" vType="car_default" speedFactor="0.92" vaporized="">
        <emissions CO_abs="3695.30" CO2_abs="213941.06" HC_abs="21.61" PMx_abs="3.33" NOx_abs="84.72" fuel_abs="68238.11" electricity_abs="0.00"/>
    </tripinfo>